V -t * -v 1.a05
n -t * -s 14192 -c red -i black
